ITEM: TIMESTEP
0
ITEM: NUMBER OF ATOMS
20
ITEM: BOX BOUNDS ff ff ff
-6000 6000
-6000 6000
-6000 6000
ITEM: ATOMS id type x y z fx fy fz
6 1 1560.58 1853.13 61.7171 -1171.76 566.788 1377.62
14 1 239.494 2374.96 84.6622 2593.2 -3618.27 336.728
13 1 1770.07 241.455 283.807 -2597.04 3619.34 -338.516
3 1 477.358 2603.03 317.517 2671.62 -2433.11 1323.16
1 1 701.844 944.009 849.024 2191.34 -619.353 1706.69
19 1 2706.72 2671.58 989.265 -3643.04 -1576.59 660.291
18 1 666.383 697.673 1198.03 3495.12 -691.464 2598.71
4 1 2091.41 1134.38 1117.48 -2675.5 2433.85 -1325.9
5 1 726.988 2256.29 1042.4 1175.4 -567.856 -1378.56
20 1 523.021 1724.8 1385.31 3645.38 1582.58 -660.639
15 1 2701.57 1430.45 1588.6 -548.313 880.94 1136.52
12 1 302.83 2648.39 1418.84 -95.912 -1265.77 1695.84
9 1 1304.84 938.279 1772.21 2333.55 1638.74 671.075
8 1 180.882 1217.06 1771.21 4153.15 -150.736 906.978
2 1 2106.28 545.615 1940.38 -2193.78 624.462 -1705.52
10 1 2791.94 1980.78 2198.87 -2335.64 -1636.33 -669.821
7 1 2647.85 1126.01 2311.06 -4151.08 155.497 -907.223
11 1 235.972 1778.03 2586.68 95.9493 1264.97 -1696.52
16 1 2285.48 2099.54 2453.81 546.388 -878.636 -1141.56
17 1 2731.73 289.574 2731.56 -3494.38 693.378 -2594.55
ITEM: TIMESTEP
20000
ITEM: NUMBER OF ATOMS
20
ITEM: BOX BOUNDS ff ff ff
-6000 6000
-6000 6000
-6000 6000
ITEM: ATOMS id type x y z fx fy fz
17 1 774.537 875.443 367.145 -0.286093 -0.599298 -0.372499
18 1 478.007 696.477 418.57 0.105596 -0.545331 -0.481709
5 1 1098.57 2926.63 843.233 0.412729 -0.696212 -0.413447
20 1 895.679 302.704 1084.15 0.121663 0.233287 -0.155927
6 1 1200.8 2651.13 1077.93 -0.486612 0.0926444 0.660101
19 1 744.134 582.601 1266.45 -0.607862 -0.552202 0.123687
16 1 2395.11 1343.01 1585.61 0.214789 -0.536716 0.0757146
4 1 -1107.78 2064.57 1765.39 0.636021 0.465663 -0.60326
3 1 -825.268 2219.33 1660.67 0.256466 0.00271007 -0.461569
10 1 1801.95 -521.497 1832.03 -0.154224 0.450889 0.0241183
14 1 -1712.81 845.837 1904.33 -0.244577 0.165319 0.15084
15 1 2313.83 1597.06 1830.1 0.0784686 -0.360287 -0.12699
8 1 4276.59 -405.67 2096.37 0.604025 0.0987537 0.511962
9 1 1995.74 -392.668 2061.76 -0.55729 -0.0162129 -0.411706
13 1 -1695.52 948.713 2089.35 0.374279 0.544512 -0.507019
7 1 4363.28 -477.804 2297.97 -0.0811871 0.237958 -0.0455042
12 1 128.121 4055.43 2516.25 -0.41931 -0.39743 -0.18761
11 1 301.784 4288.84 2491.99 0.338521 0.370605 0.312733
2 1 2088.55 -831.626 3779.45 0.496117 -0.399463 0.227586
1 1 2327.16 -757.197 3836.01 0.0103035 0.135822 -0.205454
ITEM: TIMESTEP
20001
ITEM: NUMBER OF ATOMS
20
ITEM: BOX BOUNDS ff ff ff
-6000 6000
-6000 6000
-6000 6000
ITEM: ATOMS id type x y z fx fy fz
17 1 774.537 875.443 367.145 0 0 0
18 1 478.007 696.477 418.57 0 0 0
5 1 1098.57 2926.63 843.233 0 0 0
20 1 895.679 302.704 1084.15 0 0 0
6 1 1200.8 2651.13 1077.93 0 0 0
19 1 744.134 582.601 1266.45 0 0 0
16 1 2395.11 1343.01 1585.61 0 0 0
4 1 -1107.78 2064.57 1765.39 0 0 0
3 1 -825.268 2219.33 1660.67 0 0 0
10 1 1801.95 -521.497 1832.03 0 0 0
14 1 -1712.81 845.837 1904.33 0 0 0
15 1 2313.83 1597.06 1830.1 0 0 0
8 1 4276.59 -405.67 2096.37 0 0 0
9 1 1995.74 -392.668 2061.76 0 0 0
13 1 -1695.52 948.713 2089.35 0 0 0
7 1 4363.28 -477.804 2297.97 0 0 0
12 1 128.121 4055.43 2516.25 0 0 0
11 1 301.784 4288.84 2491.99 0 0 0
2 1 2088.55 -831.626 3779.45 0 0 0
1 1 2327.16 -757.197 3836.01 0 0 0
